/*--------------------------------*- C++ -*----------------------------------*\
| =========                 |                                                 |
| \\      /  F ield         | OpenFOAM: The Open Source CFD Toolbox           |
|  \\    /   O peration     | Version:  v2006                                 |
|   \\  /    A nd           | Website:  www.openfoam.com                      |
|    \\/     M anipulation  |                                                 |
\*---------------------------------------------------------------------------*/
FoamFile
{
    version     2.0;
    format      ascii;
    class       volTensorField;
    location 	"0";
    object      Ks;
}
// * * * * * * * * * * * * * * * * * * * * * * * * * * * * * * * * * * * * * //

dimensions      [0 1 -1 0 0 0 0];

internalField   uniform (2.89e-6 0.0 0.0 0.0 2.89e-6 0.0 0.0 0.0 2.89e-6);

boundaryField
{
	bottom
    {
        type            zeroGradient;
    }
    top
    {
        type            zeroGradient;
    }
    defaultFaces
    {
        type            empty;
    }
}

// ************************************************************************* //
